 TITLE = "Post Processing Tecplot"
 VARIABLES = "X", "Y", "u", "v","Velocity Magnitude", "P", "Vorticity"
 ZONE T="BIG ZONE", I=          66 , J=          66 , DATAPACKING=POINT
   0.00000000       0.00000000       0.00000000       0.00000000       0.00000000      -1.20485323E-02   0.00000000    
   7.81250000E-03   0.00000000       0.00000000       0.00000000       0.00000000      -1.20485323E-02   0.00000000    
   2.34375000E-02   0.00000000       0.00000000       0.00000000       0.00000000      -1.20670162E-02   0.00000000    
   3.90625000E-02   0.00000000       0.00000000       0.00000000       0.00000000      -1.21978680E-02   0.00000000    
   5.46875000E-02   0.00000000       0.00000000       0.00000000       0.00000000      -1.23960124E-02   0.00000000    
   7.03125000E-02   0.00000000       0.00000000       0.00000000       0.00000000      -1.26432888E-02   0.00000000    
   8.59375000E-02   0.00000000       0.00000000       0.00000000       0.00000000      -1.29161337E-02   0.00000000    
  0.101562500       0.00000000       0.00000000       0.00000000       0.00000000      -1.31962197E-02   0.00000000    
  0.117187500       0.00000000       0.00000000       0.00000000       0.00000000      -1.34695023E-02   0.00000000    
  0.132812500       0.00000000       0.00000000       0.00000000       0.00000000      -1.37251196E-02   0.00000000    
  0.148437500       0.00000000       0.00000000       0.00000000       0.00000000      -1.39553100E-02   0.00000000    
  0.164062500       0.00000000       0.00000000       0.00000000       0.00000000      -1.41544035E-02   0.00000000    
  0.179687500       0.00000000       0.00000000       0.00000000       0.00000000      -1.43184243E-02   0.00000000    
  0.195312500       0.00000000       0.00000000       0.00000000       0.00000000      -1.44446054E-02   0.00000000    
  0.210937500       0.00000000       0.00000000       0.00000000       0.00000000      -1.45310983E-02   0.00000000    
  0.226562500       0.00000000       0.00000000       0.00000000       0.00000000      -1.45766996E-02   0.00000000    
  0.242187500       0.00000000       0.00000000       0.00000000       0.00000000      -1.45805851E-02   0.00000000    
  0.257812500       0.00000000       0.00000000       0.00000000       0.00000000      -1.45421959E-02   0.00000000    
  0.273437500       0.00000000       0.00000000       0.00000000       0.00000000      -1.44611318E-02   0.00000000    
  0.289062500       0.00000000       0.00000000       0.00000000       0.00000000      -1.43371308E-02   0.00000000    
  0.304687500       0.00000000       0.00000000       0.00000000       0.00000000      -1.41700571E-02   0.00000000    
  0.320312500       0.00000000       0.00000000       0.00000000       0.00000000      -1.39597906E-02   0.00000000    
  0.335937500       0.00000000       0.00000000       0.00000000       0.00000000      -1.37064336E-02   0.00000000    
  0.351562500       0.00000000       0.00000000       0.00000000       0.00000000      -1.34102050E-02   0.00000000    
  0.367187500       0.00000000       0.00000000       0.00000000       0.00000000      -1.30715678E-02   0.00000000    
  0.382812500       0.00000000       0.00000000       0.00000000       0.00000000      -1.26913181E-02   0.00000000    
  0.398437500       0.00000000       0.00000000       0.00000000       0.00000000      -1.22706098E-02   0.00000000    
  0.414062500       0.00000000       0.00000000       0.00000000       0.00000000      -1.18110627E-02   0.00000000    
  0.429687500       0.00000000       0.00000000       0.00000000       0.00000000      -1.13147944E-02   0.00000000    
  0.445312500       0.00000000       0.00000000       0.00000000       0.00000000      -1.07845040E-02   0.00000000    
  0.460937500       0.00000000       0.00000000       0.00000000       0.00000000      -1.02236308E-02   0.00000000    
  0.476562500       0.00000000       0.00000000       0.00000000       0.00000000      -9.63614788E-03   0.00000000    
  0.492187500       0.00000000       0.00000000       0.00000000       0.00000000      -9.02674533E-03   0.00000000    
  0.507812500       0.00000000       0.00000000       0.00000000       0.00000000      -8.40085465E-03   0.00000000    
  0.523437500       0.00000000       0.00000000       0.00000000       0.00000000      -7.76450988E-03   0.00000000    
  0.539062500       0.00000000       0.00000000       0.00000000       0.00000000      -7.12436996E-03   0.00000000    
  0.554687500       0.00000000       0.00000000       0.00000000       0.00000000      -6.48760796E-03   0.00000000    
  0.570312500       0.00000000       0.00000000       0.00000000       0.00000000      -5.86189935E-03   0.00000000    
  0.585937500       0.00000000       0.00000000       0.00000000       0.00000000      -5.25524747E-03   0.00000000    
  0.601562500       0.00000000       0.00000000       0.00000000       0.00000000      -4.67577344E-03   0.00000000    
  0.617187500       0.00000000       0.00000000       0.00000000       0.00000000      -4.13152575E-03   0.00000000    
  0.632812500       0.00000000       0.00000000       0.00000000       0.00000000      -3.63041484E-03   0.00000000    
  0.648437500       0.00000000       0.00000000       0.00000000       0.00000000      -3.17997276E-03   0.00000000    
  0.664062500       0.00000000       0.00000000       0.00000000       0.00000000      -2.78705289E-03   0.00000000    
  0.679687500       0.00000000       0.00000000       0.00000000       0.00000000      -2.45769438E-03   0.00000000    
  0.695312500       0.00000000       0.00000000       0.00000000       0.00000000      -2.19685514E-03   0.00000000    
  0.710937500       0.00000000       0.00000000       0.00000000       0.00000000      -2.00823857E-03   0.00000000    
  0.726562500       0.00000000       0.00000000       0.00000000       0.00000000      -1.89412665E-03   0.00000000    
  0.742187500       0.00000000       0.00000000       0.00000000       0.00000000      -1.85522751E-03   0.00000000    
  0.757812500       0.00000000       0.00000000       0.00000000       0.00000000      -1.89056725E-03   0.00000000    
  0.773437500       0.00000000       0.00000000       0.00000000       0.00000000      -1.99738541E-03   0.00000000    
  0.789062500       0.00000000       0.00000000       0.00000000       0.00000000      -2.17113900E-03   0.00000000    
  0.804687500       0.00000000       0.00000000       0.00000000       0.00000000      -2.40550167E-03   0.00000000    
  0.820312500       0.00000000       0.00000000       0.00000000       0.00000000      -2.69239722E-03   0.00000000    
  0.835937500       0.00000000       0.00000000       0.00000000       0.00000000      -3.02209612E-03   0.00000000    
  0.851562500       0.00000000       0.00000000       0.00000000       0.00000000      -3.38330446E-03   0.00000000    
  0.867187500       0.00000000       0.00000000       0.00000000       0.00000000      -3.76324519E-03   0.00000000    
  0.882812500       0.00000000       0.00000000       0.00000000       0.00000000      -4.14782111E-03   0.00000000    
  0.898437500       0.00000000       0.00000000       0.00000000       0.00000000      -4.52155853E-03   0.00000000    
  0.914062500       0.00000000       0.00000000       0.00000000       0.00000000      -4.86821448E-03   0.00000000    
  0.929687500       0.00000000       0.00000000       0.00000000       0.00000000      -5.16962307E-03   0.00000000    
  0.945312500       0.00000000       0.00000000       0.00000000       0.00000000      -5.41041698E-03   0.00000000    
  0.960937500       0.00000000       0.00000000       0.00000000       0.00000000      -5.56846941E-03   0.00000000    
  0.976562500       0.00000000       0.00000000       0.00000000       0.00000000      -5.64992707E-03   0.00000000    
  0.992187500       0.00000000       0.00000000       0.00000000       0.00000000      -5.61355660E-03   0.00000000    
   1.00000000       0.00000000       0.00000000       0.00000000       0.00000000      -5.61355660E-03   0.00000000    
   0.00000000       7.81250000E-03   0.00000000       0.00000000       0.00000000      -1.20485323E-02   0.00000000    
   7.81250000E-03   7.81250000E-03   1.61098214E-05  -1.59312240E-05   2.26567936E-05  -1.20487148E-02  -1.53895700E-03
   2.34375000E-02   7.81250000E-03   6.19525599E-05  -2.30850765E-05   6.61138474E-05  -1.20668039E-02  -2.45451811E-03
   3.90625000E-02   7.81250000E-03   1.03875194E-04  -1.80357347E-05   1.05429332E-04  -1.21975364E-02  -2.26481166E-03
   5.46875000E-02   7.81250000E-03   1.08351982E-04  -7.56675263E-06   1.08615874E-04  -1.23956744E-02   3.63321597E-04
   7.03125000E-02   7.81250000E-03   6.97136347E-05   3.79050425E-06   6.98166041E-05  -1.26430038E-02   6.09829696E-03
   8.59375000E-02   7.81250000E-03  -1.39793638E-05   1.44638716E-05   2.01153216E-05  -1.29159074E-02   1.52520370E-02
  0.101562500       7.81250000E-03  -1.40072094E-04   2.37494623E-05   1.42071207E-04  -1.31960195E-02   2.77792122E-02
  0.117187500       7.81250000E-03  -3.04347195E-04   3.15770085E-05   3.05980910E-04  -1.34692863E-02   4.34549823E-02
  0.132812500       7.81250000E-03  -5.01985836E-04   3.80150086E-05   5.03423216E-04  -1.37248803E-02   6.19609244E-02
  0.148437500       7.81250000E-03  -7.28048792E-04   4.32256638E-05   7.29330874E-04  -1.39550045E-02   8.29360560E-02
  0.164062500       7.81250000E-03  -9.77834337E-04   4.73714463E-05   9.78981145E-04  -1.41540030E-02  0.106012061    
  0.179687500       7.81250000E-03  -1.24696956E-03   5.06114229E-05   1.24799623E-03  -1.43179633E-02  0.130829707    
  0.195312500       7.81250000E-03  -1.53148023E-03   5.30835823E-05   1.53239991E-03  -1.44441538E-02  0.157048881    
  0.210937500       7.81250000E-03  -1.82777410E-03   5.49042015E-05   1.82859856E-03  -1.45307425E-02  0.184352323    
  0.226562500       7.81250000E-03  -2.13261810E-03   5.61650995E-05   2.13335757E-03  -1.45764602E-02  0.212445930    
  0.242187500       7.81250000E-03  -2.44307937E-03   5.69392978E-05   2.44374294E-03  -1.45804724E-02  0.241056845    
  0.257812500       7.81250000E-03  -2.75647291E-03   5.72769932E-05   2.75706802E-03  -1.45422136E-02  0.269930393    
  0.273437500       7.81250000E-03  -3.07029393E-03   5.72133213E-05   3.07082711E-03  -1.44612938E-02  0.298826069    
  0.289062500       7.81250000E-03  -3.38216219E-03   5.67675379E-05   3.38263856E-03  -1.43373748E-02  0.327513456    
  0.304687500       7.81250000E-03  -3.68976244E-03   5.59424188E-05   3.69018666E-03  -1.41702751E-02  0.355768919    
  0.320312500       7.81250000E-03  -3.99080710E-03   5.47345589E-05   3.99118243E-03  -1.39599862E-02  0.383372009    
  0.335937500       7.81250000E-03  -4.28299373E-03   5.31327023E-05   4.28332342E-03  -1.37065426E-02  0.410102606    
  0.351562500       7.81250000E-03  -4.56397980E-03   5.11164653E-05   4.56426572E-03  -1.34101929E-02  0.435739607    
  0.367187500       7.81250000E-03  -4.83135972E-03   4.86620884E-05   4.83160466E-03  -1.30714448E-02  0.460059077    
  0.382812500       7.81250000E-03  -5.08266734E-03   4.57477181E-05   5.08287316E-03  -1.26910610E-02  0.482834518    
  0.398437500       7.81250000E-03  -5.31538203E-03   4.23514066E-05   5.31555060E-03  -1.22702569E-02  0.503837287    
  0.414062500       7.81250000E-03  -5.52693801E-03   3.84544728E-05   5.52707165E-03  -1.18106371E-02  0.522838056    
  0.429687500       7.81250000E-03  -5.71474945E-03   3.40425395E-05   5.71485097E-03  -1.13143511E-02  0.539609194    
  0.445312500       7.81250000E-03  -5.87625010E-03   2.91111010E-05   5.87632228E-03  -1.07840961E-02  0.553927839    
  0.460937500       7.81250000E-03  -6.00893563E-03   2.36645465E-05   6.00898219E-03  -1.02232769E-02  0.565579772    
  0.476562500       7.81250000E-03  -6.11042278E-03   1.77242437E-05   6.11044839E-03  -9.63586941E-03  0.574363112    
  0.492187500       7.81250000E-03  -6.17849175E-03   1.13167507E-05   6.17850246E-03  -9.02658794E-03  0.580093980    
  0.507812500       7.81250000E-03  -6.21116301E-03   4.48667606E-06   6.21116441E-03  -8.40079505E-03  0.582610786    
  0.523437500       7.81250000E-03  -6.20675879E-03  -2.70830355E-06   6.20675972E-03  -7.76452245E-03  0.581781030    
  0.539062500       7.81250000E-03  -6.16397941E-03  -1.01887736E-05   6.16398780E-03  -7.12441234E-03  0.577506244    
  0.554687500       7.81250000E-03  -6.08195551E-03  -1.78563751E-05   6.08198205E-03  -6.48769643E-03  0.569726348    
  0.570312500       7.81250000E-03  -5.96033176E-03  -2.56088206E-05   5.96038671E-03  -5.86201483E-03  0.558425784    
  0.585937500       7.81250000E-03  -5.79932379E-03  -3.33205389E-05   5.79941971E-03  -5.25532477E-03  0.543639660    
  0.601562500       7.81250000E-03  -5.59976371E-03  -4.08546948E-05   5.59991272E-03  -4.67577763E-03  0.525454283    
  0.617187500       7.81250000E-03  -5.36315097E-03  -4.80661511E-05   5.36336657E-03  -4.13148617E-03  0.504013777    
  0.632812500       7.81250000E-03  -5.09167928E-03  -5.48017488E-05   5.09197405E-03  -3.63034243E-03  0.479519546    
  0.648437500       7.81250000E-03  -4.78824088E-03  -6.09117051E-05   4.78862831E-03  -3.17985611E-03  0.452232361    
  0.664062500       7.81250000E-03  -4.45643952E-03  -6.62395832E-05   4.45693173E-03  -2.78688478E-03  0.422470987    
  0.679687500       7.81250000E-03  -4.10054810E-03  -7.06419814E-05   4.10115672E-03  -2.45748390E-03  0.390609443    
  0.695312500       7.81250000E-03  -3.72546329E-03  -7.39843163E-05   3.72619787E-03  -2.19662907E-03  0.357072920    
  0.710937500       7.81250000E-03  -3.33664101E-03  -7.61503106E-05   3.33750993E-03  -2.00801110E-03  0.322332293    
  0.726562500       7.81250000E-03  -2.93999864E-03  -7.70450642E-05   2.94100796E-03  -1.89392071E-03  0.286895186    
  0.742187500       7.81250000E-03  -2.54180492E-03  -7.66018202E-05   2.54295883E-03  -1.85505871E-03  0.251298040    
  0.757812500       7.81250000E-03  -2.14855676E-03  -7.47806480E-05   2.14985781E-03  -1.89043314E-03  0.216094360    
  0.773437500       7.81250000E-03  -1.76682428E-03  -7.15744682E-05   1.76827342E-03  -1.99728599E-03  0.181842834    
  0.789062500       7.81250000E-03  -1.40310731E-03  -6.70087684E-05   1.40470651E-03  -2.17107614E-03  0.149094731    
  0.804687500       7.81250000E-03  -1.06366840E-03  -6.11403448E-05   1.06542418E-03  -2.40547583E-03  0.118379526    
  0.820312500       7.81250000E-03  -7.54374778E-04  -5.40571382E-05   7.56309135E-04  -2.69240746E-03   9.01908726E-02
  0.835937500       7.81250000E-03  -4.80533083E-04  -4.58760987E-05   4.82717995E-04  -3.02213500E-03   6.49720579E-02
  0.851562500       7.81250000E-03  -2.46732758E-04  -3.67391549E-05   2.49453034E-04  -3.38336662E-03   4.31008860E-02
  0.867187500       7.81250000E-03  -5.66721355E-05  -2.68150106E-05   6.26959009E-05  -3.76332714E-03   2.48731710E-02
  0.882812500       7.81250000E-03   8.70074509E-05  -1.63054028E-05   8.85221016E-05  -4.14792728E-03   1.04851332E-02
  0.898437500       7.81250000E-03   1.83016673E-04  -5.47376021E-06   1.83098513E-04  -4.52167820E-03   8.48172022E-06
  0.914062500       7.81250000E-03   2.31579863E-04   5.30306761E-06   2.31640573E-04  -4.86834627E-03  -6.63235597E-03
  0.929687500       7.81250000E-03   2.35491461E-04   1.53607452E-05   2.35991902E-04  -5.16975578E-03  -9.72326100E-03
  0.945312500       7.81250000E-03   1.99661954E-04   2.35688149E-05   2.01048213E-04  -5.41054737E-03  -9.76033323E-03
  0.960937500       7.81250000E-03   1.36593691E-04   2.75678776E-05   1.39347845E-04  -5.56859840E-03  -7.67768594E-03
  0.976562500       7.81250000E-03   5.83885958E-05   2.42323003E-05   6.32173469E-05  -5.65004442E-03  -4.42828005E-03
  0.992187500       7.81250000E-03   8.22239144E-06   8.40412577E-06   1.17574255E-05  -5.61368745E-03  -1.58026221E-03
   1.00000000       7.81250000E-03   0.00000000       0.00000000       0.00000000      -5.61355660E-03   0.00000000    
   0.00000000       2.34375000E-02   0.00000000       0.00000000       0.00000000      -1.20302327E-02   0.00000000    
   7.81250000E-03   2.34375000E-02   2.35499865E-05  -6.20423089E-05   6.63615137E-05  -1.20300157E-02  -2.45245127E-03
   2.34375000E-02   2.34375000E-02   7.22748300E-05  -7.14873531E-05   1.01656740E-04  -1.20482985E-02   2.20316742E-03
   3.90625000E-02   2.34375000E-02   8.41489818E-05  -2.78674997E-05   8.86433772E-05  -1.21523645E-02   8.70648213E-03
   5.46875000E-02   2.34375000E-02   1.08164932E-05   4.40506010E-05   4.53591456E-05  -1.23056462E-02   1.66904274E-02
   7.03125000E-02   2.34375000E-02  -1.62766257E-04   1.24564045E-04   2.04961107E-04  -1.24965133E-02   2.71764863E-02
   8.59375000E-02   2.34375000E-02  -4.42224002E-04   2.04792013E-04   4.87341604E-04  -1.27092395E-02   4.07493897E-02
  0.101562500       2.34375000E-02  -8.24681192E-04   2.79386848E-04   8.70721589E-04  -1.29299164E-02   5.76173775E-02
  0.117187500       2.34375000E-02  -1.30255218E-03   3.46146262E-04   1.34776090E-03  -1.31477192E-02   7.77355954E-02
  0.132812500       2.34375000E-02  -1.86595519E-03   4.04153427E-04   1.90922199E-03  -1.33533739E-02  0.100899629    
  0.148437500       2.34375000E-02  -2.50385748E-03   4.53392830E-04   2.54457607E-03  -1.35399541E-02  0.126810908    
  0.164062500       2.34375000E-02  -3.20510101E-03   4.94244450E-04   3.24298465E-03  -1.37020266E-02  0.155121937    
  0.179687500       2.34375000E-02  -3.95882456E-03   5.27310651E-04   3.99378873E-03  -1.38356136E-02  0.185464874    
  0.195312500       2.34375000E-02  -4.75476449E-03   5.53254271E-04   4.78684390E-03  -1.39377378E-02  0.217469335    
  0.210937500       2.34375000E-02  -5.58335287E-03   5.72729099E-04   5.61265089E-03  -1.40061527E-02  0.250773191    
  0.226562500       2.34375000E-02  -6.43572072E-03   5.86319075E-04   6.46237377E-03  -1.40391989E-02  0.285027176    
  0.242187500       2.34375000E-02  -7.30364118E-03   5.94519021E-04   7.32779829E-03  -1.40356934E-02  0.319897473    
  0.257812500       2.34375000E-02  -8.17943551E-03   5.97718579E-04   8.20124522E-03  -1.39947282E-02  0.355064750    
  0.273437500       2.34375000E-02  -9.05584544E-03   5.96201862E-04   9.07544978E-03  -1.39156254E-02  0.390222698    
  0.289062500       2.34375000E-02  -9.92592145E-03   5.90154959E-04   9.94344987E-03  -1.37978708E-02  0.425075203    
  0.304687500       2.34375000E-02  -1.07829096E-02   5.79664891E-04   1.07984794E-02  -1.36411898E-02  0.459334463    
  0.320312500       2.34375000E-02  -1.16201434E-02   5.64752088E-04   1.16338590E-02  -1.34454565E-02  0.492717981    
  0.335937500       2.34375000E-02  -1.24309706E-02   5.45375922E-04   1.24429287E-02  -1.32107828E-02  0.524946690    
  0.351562500       2.34375000E-02  -1.32087013E-02   5.21454494E-04   1.32189896E-02  -1.29374247E-02  0.555743277    
  0.367187500       2.34375000E-02  -1.39465537E-02   4.92883148E-04   1.39552606E-02  -1.26259103E-02  0.584832966    
  0.382812500       2.34375000E-02  -1.46376602E-02   4.59567731E-04   1.46448724E-02  -1.22771170E-02  0.611941755    
  0.398437500       2.34375000E-02  -1.52750900E-02   4.21426870E-04   1.52809024E-02  -1.18922498E-02  0.636798084    
  0.414062500       2.34375000E-02  -1.58518869E-02   3.78416764E-04   1.58564039E-02  -1.14729283E-02  0.659135222    
  0.429687500       2.34375000E-02  -1.63611379E-02   3.30555253E-04   1.63644776E-02  -1.10212350E-02  0.678693295    
  0.445312500       2.34375000E-02  -1.67960711E-02   2.77926971E-04   1.67983696E-02  -1.05397357E-02  0.695223093    
  0.460937500       2.34375000E-02  -1.71501692E-02   2.20711110E-04   1.71515886E-02  -1.00315735E-02  0.708490491    
  0.476562500       2.34375000E-02  -1.74172912E-02   1.59196396E-04   1.74180195E-02  -9.50047839E-03  0.718279123    
  0.492187500       2.34375000E-02  -1.75918434E-02   9.37697478E-05   1.75920930E-02  -8.95071961E-03  0.724397540    
  0.507812500       2.34375000E-02  -1.76688973E-02   2.49483728E-05   1.76689159E-02  -8.38716980E-03  0.726683795    
  0.523437500       2.34375000E-02  -1.76444035E-02  -4.66195597E-05   1.76444650E-02  -7.81521201E-03  0.725010812    
  0.539062500       2.34375000E-02  -1.75153371E-02  -1.20163859E-04   1.75157487E-02  -7.24084862E-03  0.719291627    
  0.554687500       2.34375000E-02  -1.72798559E-02  -1.94785898E-04   1.72809530E-02  -6.67053880E-03  0.709484994    
  0.570312500       2.34375000E-02  -1.69374589E-02  -2.69473298E-04   1.69396028E-02  -6.11093221E-03  0.695599735    
  0.585937500       2.34375000E-02  -1.64891761E-02  -3.43105872E-04   1.64927449E-02  -5.56907104E-03  0.677699625    
  0.601562500       2.34375000E-02  -1.59376040E-02  -4.14477428E-04   1.59429926E-02  -5.05211437E-03  0.655906200    
  0.617187500       2.34375000E-02  -1.52870920E-02  -4.82313015E-04   1.52946981E-02  -4.56709508E-03  0.630402207    
  0.632812500       2.34375000E-02  -1.45437410E-02  -5.45304152E-04   1.45539604E-02  -4.12081508E-03  0.601430535    
  0.648437500       2.34375000E-02  -1.37154488E-02  -6.02143467E-04   1.37286605E-02  -3.71967838E-03  0.569297850    
  0.664062500       2.34375000E-02  -1.28118815E-02  -6.51543378E-04   1.28284376E-02  -3.36953602E-03  0.534369349    
  0.679687500       2.34375000E-02  -1.18443947E-02  -6.92296715E-04   1.18646091E-02  -3.07544344E-03  0.497067720    
  0.695312500       2.34375000E-02  -1.08259004E-02  -7.23303470E-04   1.08500365E-02  -2.84147379E-03  0.457867593    
  0.710937500       2.34375000E-02  -9.77070630E-03  -7.43617595E-04   9.79896262E-03  -2.67056399E-03  0.417289972    
  0.726562500       2.34375000E-02  -8.69424548E-03  -7.52485415E-04   8.72674864E-03  -2.56440416E-03  0.375892252    
  0.742187500       2.34375000E-02  -7.61282770E-03  -7.49377417E-04   7.64962146E-03  -2.52324739E-03  0.334260672    
  0.757812500       2.34375000E-02  -6.54328661E-03  -7.34015834E-04   6.58432813E-03  -2.54592090E-03  0.292996824    
  0.773437500       2.34375000E-02  -5.50261699E-03  -7.06405495E-04   5.54777449E-03  -2.62970501E-03  0.252705574    
  0.789062500       2.34375000E-02  -4.50758822E-03  -6.66846870E-04   4.55664750E-03  -2.77033541E-03  0.213981792    
  0.804687500       2.34375000E-02  -3.57430684E-03  -6.15941593E-04   3.62698967E-03  -2.96205631E-03  0.177394241    
  0.820312500       2.34375000E-02  -2.71779252E-03  -5.54601487E-04   2.77380226E-03  -3.19762062E-03  0.143469721    
  0.835937500       2.34375000E-02  -1.95153221E-03  -4.84047661E-04   2.01066653E-03  -3.46843014E-03  0.112676382    
  0.851562500       2.34375000E-02  -1.28702645E-03  -4.05817496E-04   1.34949060E-03  -3.76464240E-03   8.54044110E-02
  0.867187500       2.34375000E-02  -7.33298715E-04  -3.21793574E-04   8.00798414E-04  -4.07527108E-03   6.19461015E-02
  0.882812500       2.34375000E-02  -2.96390062E-04  -2.34266176E-04   3.77793214E-04  -4.38843295E-03   4.24726382E-02
  0.898437500       2.34375000E-02   2.13514486E-05  -1.46063598E-04   1.47615923E-04  -4.69135493E-03   2.70062275E-02
  0.914062500       2.34375000E-02   2.21814989E-04  -6.08257251E-05   2.30003599E-04  -4.97123366E-03   1.53887570E-02
  0.929687500       2.34375000E-02   3.12910037E-04   1.65453584E-05   3.13347147E-04  -5.21389674E-03   7.23882671E-03
  0.945312500       2.34375000E-02   3.07974813E-04   7.90922350E-05   3.17968661E-04  -5.40936599E-03   1.92873483E-03
  0.960937500       2.34375000E-02   2.33320636E-04   1.16675787E-04   2.60867324E-04  -5.53903542E-03  -1.45873299E-03
  0.976562500       2.34375000E-02   1.15026560E-04   1.15449540E-04   1.62971482E-04  -5.61509887E-03  -3.91503796E-03
  0.992187500       2.34375000E-02   2.36544329E-05   5.81428394E-05   6.27703921E-05  -5.57798892E-03  -4.43126168E-03
   1.00000000       2.34375000E-02   0.00000000       0.00000000       0.00000000      -5.57786971E-03   0.00000000    
   0.00000000       3.90625000E-02   0.00000000       0.00000000       0.00000000      -1.18982801E-02   0.00000000    
   7.81250000E-03   3.90625000E-02   1.89391740E-05  -1.04980420E-04   1.06675121E-04  -1.18979588E-02  -2.27500265E-03
   2.34375000E-02   3.90625000E-02   2.93647208E-05  -8.37018306E-05   8.87033457E-05  -1.19448742E-02   8.77843425E-03
   3.90625000E-02   3.90625000E-02  -4.44196558E-05   4.50717489E-05   6.32816591E-05  -1.20503101E-02   2.12663133E-02
   5.46875000E-02   3.90625000E-02  -2.44986993E-04   2.35856685E-04   3.40069120E-04  -1.22016640E-02   3.36094573E-02
   7.03125000E-02   3.90625000E-02  -5.93074888E-04   4.48685809E-04   7.43677898E-04  -1.23811914E-02   4.69104126E-02
   8.59375000E-02   3.90625000E-02  -1.09398656E-03   6.63247076E-04   1.27933698E-03  -1.25790434E-02   6.18995056E-02
  0.101562500       3.90625000E-02  -1.74469908E-03   8.66088318E-04   1.94784079E-03  -1.27820633E-02   7.89905265E-02
  0.117187500       3.90625000E-02  -2.53520487E-03   1.05049624E-03   2.74423137E-03  -1.29815834E-02   9.83546898E-02
  0.132812500       3.90625000E-02  -3.45230382E-03   1.21307117E-03   3.65922716E-03  -1.31693203E-02  0.119988501    
  0.148437500       3.90625000E-02  -4.48071258E-03   1.35281449E-03   4.68047988E-03  -1.33393044E-02  0.143767878    
  0.164062500       3.90625000E-02  -5.60458144E-03   1.47000805E-03   5.79415727E-03  -1.34866145E-02  0.169489622    
  0.179687500       3.90625000E-02  -6.80810772E-03   1.56569341E-03   6.98582316E-03  -1.36076789E-02  0.196900919    
  0.195312500       3.90625000E-02  -8.07604194E-03   1.64125150E-03   8.24112631E-03  -1.36996498E-02  0.225721374    
  0.210937500       3.90625000E-02  -9.39389691E-03   1.69815507E-03   9.54615232E-03  -1.37603646E-02  0.255655855    
  0.226562500       3.90625000E-02  -1.07480157E-02   1.73779984E-03   1.08875977E-02  -1.37881804E-02  0.286405563    
  0.242187500       3.90625000E-02  -1.21255433E-02   1.76141073E-03   1.22528104E-02  -1.37818614E-02  0.317672849    
  0.257812500       3.90625000E-02  -1.35143278E-02   1.76998565E-03   1.36297438E-02  -1.37404073E-02  0.349164814    
  0.273437500       3.90625000E-02  -1.49027882E-02   1.76427944E-03   1.50068579E-02  -1.36630377E-02  0.380594820    
  0.289062500       3.90625000E-02  -1.62797663E-02   1.74479547E-03   1.63729992E-02  -1.35492347E-02  0.411682904    
  0.304687500       3.90625000E-02  -1.76343918E-02   1.71181455E-03   1.77172814E-02  -1.33986268E-02  0.442156255    
  0.320312500       3.90625000E-02  -1.89559441E-02   1.66543841E-03   1.90289654E-02  -1.32110864E-02  0.471748859    
  0.335937500       3.90625000E-02  -2.02337671E-02   1.60562177E-03   2.02973727E-02  -1.29866442E-02  0.500200450    
  0.351562500       3.90625000E-02  -2.14571785E-02   1.53222226E-03   2.15118155E-02  -1.27255786E-02  0.527256072    
  0.367187500       3.90625000E-02  -2.26154588E-02   1.44505093E-03   2.26615798E-02  -1.24283470E-02  0.552668035    
  0.382812500       3.90625000E-02  -2.36978140E-02   1.34394143E-03   2.37358920E-02  -1.20958146E-02  0.576195478    
  0.398437500       3.90625000E-02  -2.46934444E-02   1.22878409E-03   2.47239992E-02  -1.17291110E-02  0.597604871    
  0.414062500       3.90625000E-02  -2.55916044E-02   1.09957892E-03   2.56152153E-02  -1.13297887E-02  0.616672337    
  0.429687500       3.90625000E-02  -2.63817031E-02   9.56498028E-04   2.63990369E-02  -1.08998548E-02  0.633187771    
  0.445312500       3.90625000E-02  -2.70534605E-02   7.99913832E-04   2.70652827E-02  -1.04416767E-02  0.646953106    
  0.460937500       3.90625000E-02  -2.75970753E-02   6.30455615E-04   2.76042763E-02  -9.95826628E-03  0.657790422    
  0.476562500       3.90625000E-02  -2.80033983E-02   4.49043408E-04   2.80069988E-02  -9.45318397E-03  0.665540636    
  0.492187500       3.90625000E-02  -2.82641817E-02   2.56896659E-04   2.82653496E-02  -8.93042609E-03  0.670068443    
  0.507812500       3.90625000E-02  -2.83722747E-02   5.55699662E-05   2.83723287E-02  -8.39457102E-03  0.671268821    
  0.523437500       3.90625000E-02  -2.83218957E-02  -1.53018656E-04   2.83223093E-02  -7.85083789E-03  0.669067204    
  0.539062500       3.90625000E-02  -2.81088632E-02  -3.66635737E-04   2.81112548E-02  -7.30486913E-03  0.663420200    
  0.554687500       3.90625000E-02  -2.77308114E-02  -5.82708977E-04   2.77369339E-02  -6.76273927E-03  0.654326975    
  0.570312500       3.90625000E-02  -2.71874331E-02  -7.98346649E-04   2.71991529E-02  -6.23083021E-03  0.641824365    
  0.585937500       3.90625000E-02  -2.64806803E-02  -1.01039116E-03   2.64999494E-02  -5.71584143E-03  0.625992179    
  0.601562500       3.90625000E-02  -2.56149173E-02  -1.21545908E-03   2.56437380E-02  -5.22451801E-03  0.606954813    
  0.617187500       3.90625000E-02  -2.45970748E-02  -1.40999875E-03   2.46374551E-02  -4.76353569E-03  0.584881067    
  0.632812500       3.90625000E-02  -2.34366786E-02  -1.59038475E-03   2.34905779E-02  -4.33933455E-03  0.559983552    
  0.648437500       3.90625000E-02  -2.21459307E-02  -1.75299204E-03   2.22152025E-02  -3.95800546E-03  0.532520711    
  0.664062500       3.90625000E-02  -2.07396038E-02  -1.89428916E-03   2.08259337E-02  -3.62503622E-03  0.502790868    
  0.679687500       3.90625000E-02  -1.92349665E-02  -2.01096153E-03   1.93398017E-02  -3.34517029E-03  0.471133262    
  0.695312500       3.90625000E-02  -1.76515598E-02  -2.10000062E-03   1.77760385E-02  -3.12216626E-03  0.437922060    
  0.710937500       3.90625000E-02  -1.60109736E-02  -2.15882901E-03   1.61558595E-02  -2.95878830E-03  0.403561264    
  0.726562500       3.90625000E-02  -1.43364333E-02  -2.18539336E-03   1.45020429E-02  -2.85650184E-03  0.368481040    
  0.742187500       3.90625000E-02  -1.26524465E-02  -2.17826804E-03   1.28385844E-02  -2.81546544E-03  0.333126813    
  0.757812500       3.90625000E-02  -1.09842764E-02  -2.13673594E-03   1.11901732E-02  -2.83446326E-03  0.297955483    