 TITLE = "Post Processing Tecplot"
 VARIABLES = "X", "Y", "u", "v","Velocity Magnitude", "P", "Vorticity"
 ZONE T="BIG ZONE", I=         131 , J=         131 , DATAPACKING=POINT
   0.00000000       0.00000000       0.00000000       0.00000000       0.00000000       1.05525050E-02   0.00000000    
   3.87596898E-03   0.00000000       0.00000000       0.00000000       0.00000000       1.05525050E-02   0.00000000    
   1.16279069E-02   0.00000000       0.00000000       0.00000000       0.00000000       1.05684735E-02   0.00000000    
   1.93798449E-02   0.00000000       0.00000000       0.00000000       0.00000000       1.05786631E-02   0.00000000    
   2.71317828E-02   0.00000000       0.00000000       0.00000000       0.00000000       1.05888247E-02   0.00000000    
   3.48837227E-02   0.00000000       0.00000000       0.00000000       0.00000000       1.05874073E-02   0.00000000    
   4.26356606E-02   0.00000000       0.00000000       0.00000000       0.00000000       1.05784852E-02   0.00000000    
   5.03875986E-02   0.00000000       0.00000000       0.00000000       0.00000000       1.05582029E-02   0.00000000    
   5.81395365E-02   0.00000000       0.00000000       0.00000000       0.00000000       1.05289342E-02   0.00000000    
   6.58914745E-02   0.00000000       0.00000000       0.00000000       0.00000000       1.04899975E-02   0.00000000    
   7.36434162E-02   0.00000000       0.00000000       0.00000000       0.00000000       1.04429089E-02   0.00000000    
   8.13953578E-02   0.00000000       0.00000000       0.00000000       0.00000000       1.03880167E-02   0.00000000    
   8.91472995E-02   0.00000000       0.00000000       0.00000000       0.00000000       1.03263892E-02   0.00000000    
   9.68992412E-02   0.00000000       0.00000000       0.00000000       0.00000000       1.02585834E-02   0.00000000    
  0.104651183       0.00000000       0.00000000       0.00000000       0.00000000       1.01853078E-02   0.00000000    
  0.112403125       0.00000000       0.00000000       0.00000000       0.00000000       1.01070125E-02   0.00000000    
  0.120155066       0.00000000       0.00000000       0.00000000       0.00000000       1.00240856E-02   0.00000000    
  0.127907008       0.00000000       0.00000000       0.00000000       0.00000000       9.93679091E-03   0.00000000    
  0.135658950       0.00000000       0.00000000       0.00000000       0.00000000       9.84533038E-03   0.00000000    
  0.143410891       0.00000000       0.00000000       0.00000000       0.00000000       9.74981580E-03   0.00000000    
  0.151162833       0.00000000       0.00000000       0.00000000       0.00000000       9.65027232E-03   0.00000000    
  0.158914775       0.00000000       0.00000000       0.00000000       0.00000000       9.54664499E-03   0.00000000    
  0.166666716       0.00000000       0.00000000       0.00000000       0.00000000       9.43884347E-03   0.00000000    
  0.174418658       0.00000000       0.00000000       0.00000000       0.00000000       9.32673085E-03   0.00000000    
  0.182170600       0.00000000       0.00000000       0.00000000       0.00000000       9.21013020E-03   0.00000000    
  0.189922541       0.00000000       0.00000000       0.00000000       0.00000000       9.08886455E-03   0.00000000    
  0.197674483       0.00000000       0.00000000       0.00000000       0.00000000       8.96276347E-03   0.00000000    
  0.205426425       0.00000000       0.00000000       0.00000000       0.00000000       8.83165095E-03   0.00000000    
  0.213178366       0.00000000       0.00000000       0.00000000       0.00000000       8.69531278E-03   0.00000000    
  0.220930308       0.00000000       0.00000000       0.00000000       0.00000000       8.55362695E-03   0.00000000    
  0.228682250       0.00000000       0.00000000       0.00000000       0.00000000       8.40654410E-03   0.00000000    
  0.236434191       0.00000000       0.00000000       0.00000000       0.00000000       8.25407170E-03   0.00000000    
  0.244186133       0.00000000       0.00000000       0.00000000       0.00000000       8.09628610E-03   0.00000000    
  0.251938075       0.00000000       0.00000000       0.00000000       0.00000000       7.93336518E-03   0.00000000    
  0.259690017       0.00000000       0.00000000       0.00000000       0.00000000       7.76557392E-03   0.00000000    
  0.267441958       0.00000000       0.00000000       0.00000000       0.00000000       7.59329926E-03   0.00000000    
  0.275193900       0.00000000       0.00000000       0.00000000       0.00000000       7.41706463E-03   0.00000000    
  0.282945842       0.00000000       0.00000000       0.00000000       0.00000000       7.23746791E-03   0.00000000    
  0.290697783       0.00000000       0.00000000       0.00000000       0.00000000       7.05519505E-03   0.00000000    
  0.298449725       0.00000000       0.00000000       0.00000000       0.00000000       6.87101530E-03   0.00000000    
  0.306201667       0.00000000       0.00000000       0.00000000       0.00000000       6.68584881E-03   0.00000000    
  0.313953608       0.00000000       0.00000000       0.00000000       0.00000000       6.50075590E-03   0.00000000    
  0.321705550       0.00000000       0.00000000       0.00000000       0.00000000       6.31689839E-03   0.00000000    
  0.329457492       0.00000000       0.00000000       0.00000000       0.00000000       6.13556756E-03   0.00000000    
  0.337209433       0.00000000       0.00000000       0.00000000       0.00000000       5.95816178E-03   0.00000000    
  0.344961375       0.00000000       0.00000000       0.00000000       0.00000000       5.78625221E-03   0.00000000    
  0.352713317       0.00000000       0.00000000       0.00000000       0.00000000       5.62151475E-03   0.00000000    
  0.360465258       0.00000000       0.00000000       0.00000000       0.00000000       5.46571799E-03   0.00000000    
  0.368217200       0.00000000       0.00000000       0.00000000       0.00000000       5.32072783E-03   0.00000000    
  0.375969142       0.00000000       0.00000000       0.00000000       0.00000000       5.18852985E-03   0.00000000    
  0.383721083       0.00000000       0.00000000       0.00000000       0.00000000       5.07132430E-03   0.00000000    
  0.391473025       0.00000000       0.00000000       0.00000000       0.00000000       4.97138454E-03   0.00000000    
  0.399224967       0.00000000       0.00000000       0.00000000       0.00000000       4.89082932E-03   0.00000000    
  0.406976908       0.00000000       0.00000000       0.00000000       0.00000000       4.83195297E-03   0.00000000    
  0.414728850       0.00000000       0.00000000       0.00000000       0.00000000       4.79715364E-03   0.00000000    
  0.422480792       0.00000000       0.00000000       0.00000000       0.00000000       4.78876242E-03   0.00000000    
  0.430232733       0.00000000       0.00000000       0.00000000       0.00000000       4.80912905E-03   0.00000000    
  0.437984675       0.00000000       0.00000000       0.00000000       0.00000000       4.86045191E-03   0.00000000    
  0.445736617       0.00000000       0.00000000       0.00000000       0.00000000       4.94480785E-03   0.00000000    
  0.453488559       0.00000000       0.00000000       0.00000000       0.00000000       5.06413868E-03   0.00000000    
  0.461240500       0.00000000       0.00000000       0.00000000       0.00000000       5.22019947E-03   0.00000000    
  0.468992442       0.00000000       0.00000000       0.00000000       0.00000000       5.41459955E-03   0.00000000    
  0.476744384       0.00000000       0.00000000       0.00000000       0.00000000       5.64859994E-03   0.00000000    
  0.484496325       0.00000000       0.00000000       0.00000000       0.00000000       5.92311658E-03   0.00000000    
  0.492248267       0.00000000       0.00000000       0.00000000       0.00000000       6.23879489E-03   0.00000000    
  0.500000179       0.00000000       0.00000000       0.00000000       0.00000000       6.59595663E-03   0.00000000    
  0.507752120       0.00000000       0.00000000       0.00000000       0.00000000       6.99449517E-03   0.00000000    
  0.515504062       0.00000000       0.00000000       0.00000000       0.00000000       7.43367989E-03   0.00000000    
  0.523256004       0.00000000       0.00000000       0.00000000       0.00000000       7.91244023E-03   0.00000000    
  0.531007946       0.00000000       0.00000000       0.00000000       0.00000000       8.42928328E-03   0.00000000    
  0.538759887       0.00000000       0.00000000       0.00000000       0.00000000       8.98192637E-03   0.00000000    
  0.546511829       0.00000000       0.00000000       0.00000000       0.00000000       9.56771616E-03   0.00000000    
  0.554263771       0.00000000       0.00000000       0.00000000       0.00000000       1.01834545E-02   0.00000000    
  0.562015712       0.00000000       0.00000000       0.00000000       0.00000000       1.08253276E-02   0.00000000    
  0.569767654       0.00000000       0.00000000       0.00000000       0.00000000       1.14889387E-02   0.00000000    
  0.577519596       0.00000000       0.00000000       0.00000000       0.00000000       1.21693546E-02   0.00000000    
  0.585271537       0.00000000       0.00000000       0.00000000       0.00000000       1.28611941E-02   0.00000000    
  0.593023479       0.00000000       0.00000000       0.00000000       0.00000000       1.35585181E-02   0.00000000    
  0.600775421       0.00000000       0.00000000       0.00000000       0.00000000       1.42549602E-02   0.00000000    
  0.608527362       0.00000000       0.00000000       0.00000000       0.00000000       1.49437813E-02   0.00000000    
  0.616279304       0.00000000       0.00000000       0.00000000       0.00000000       1.56180682E-02   0.00000000    
  0.624031246       0.00000000       0.00000000       0.00000000       0.00000000       1.62706096E-02   0.00000000    
  0.631783187       0.00000000       0.00000000       0.00000000       0.00000000       1.68940872E-02   0.00000000    
  0.639535129       0.00000000       0.00000000       0.00000000       0.00000000       1.74812153E-02   0.00000000    
  0.647287071       0.00000000       0.00000000       0.00000000       0.00000000       1.80249233E-02   0.00000000    
  0.655039012       0.00000000       0.00000000       0.00000000       0.00000000       1.85183026E-02   0.00000000    
  0.662790954       0.00000000       0.00000000       0.00000000       0.00000000       1.89549495E-02   0.00000000    
  0.670542896       0.00000000       0.00000000       0.00000000       0.00000000       1.93290170E-02   0.00000000    
  0.678294837       0.00000000       0.00000000       0.00000000       0.00000000       1.96353719E-02   0.00000000    
  0.686046779       0.00000000       0.00000000       0.00000000       0.00000000       1.98697131E-02   0.00000000    
  0.693798721       0.00000000       0.00000000       0.00000000       0.00000000       2.00287625E-02   0.00000000    
  0.701550663       0.00000000       0.00000000       0.00000000       0.00000000       2.01104153E-02   0.00000000    
  0.709302604       0.00000000       0.00000000       0.00000000       0.00000000       2.01137662E-02   0.00000000    
  0.717054546       0.00000000       0.00000000       0.00000000       0.00000000       2.00392213E-02   0.00000000    
  0.724806488       0.00000000       0.00000000       0.00000000       0.00000000       1.98885854E-02   0.00000000    
  0.732558429       0.00000000       0.00000000       0.00000000       0.00000000       1.96650177E-02   0.00000000    
  0.740310371       0.00000000       0.00000000       0.00000000       0.00000000       1.93729959E-02   0.00000000    
  0.748062313       0.00000000       0.00000000       0.00000000       0.00000000       1.90183185E-02   0.00000000    
  0.755814254       0.00000000       0.00000000       0.00000000       0.00000000       1.86078921E-02   0.00000000    
  0.763566196       0.00000000       0.00000000       0.00000000       0.00000000       1.81496087E-02   0.00000000    
  0.771318138       0.00000000       0.00000000       0.00000000       0.00000000       1.76521521E-02   0.00000000    
  0.779070079       0.00000000       0.00000000       0.00000000       0.00000000       1.71247460E-02   0.00000000    
  0.786822021       0.00000000       0.00000000       0.00000000       0.00000000       1.65768582E-02   0.00000000    
  0.794573963       0.00000000       0.00000000       0.00000000       0.00000000       1.60179473E-02   0.00000000    
  0.802325904       0.00000000       0.00000000       0.00000000       0.00000000       1.54571626E-02   0.00000000    
  0.810077846       0.00000000       0.00000000       0.00000000       0.00000000       1.49031170E-02   0.00000000    
  0.817829788       0.00000000       0.00000000       0.00000000       0.00000000       1.43636242E-02   0.00000000    
  0.825581729       0.00000000       0.00000000       0.00000000       0.00000000       1.38455285E-02   0.00000000    
  0.833333671       0.00000000       0.00000000       0.00000000       0.00000000       1.33545566E-02   0.00000000    
  0.841085613       0.00000000       0.00000000       0.00000000       0.00000000       1.28952237E-02   0.00000000    
  0.848837554       0.00000000       0.00000000       0.00000000       0.00000000       1.24708582E-02   0.00000000    
  0.856589496       0.00000000       0.00000000       0.00000000       0.00000000       1.20836254E-02   0.00000000    
  0.864341438       0.00000000       0.00000000       0.00000000       0.00000000       1.17345685E-02   0.00000000    
  0.872093379       0.00000000       0.00000000       0.00000000       0.00000000       1.14238020E-02   0.00000000    
  0.879845321       0.00000000       0.00000000       0.00000000       0.00000000       1.11505995E-02   0.00000000    
  0.887597263       0.00000000       0.00000000       0.00000000       0.00000000       1.09136403E-02   0.00000000    
  0.895349205       0.00000000       0.00000000       0.00000000       0.00000000       1.07110878E-02   0.00000000    
  0.903101146       0.00000000       0.00000000       0.00000000       0.00000000       1.05410134E-02   0.00000000    
  0.910853088       0.00000000       0.00000000       0.00000000       0.00000000       1.04010953E-02   0.00000000    
  0.918605030       0.00000000       0.00000000       0.00000000       0.00000000       1.02895275E-02   0.00000000    
  0.926356971       0.00000000       0.00000000       0.00000000       0.00000000       1.02039529E-02   0.00000000    
  0.934108913       0.00000000       0.00000000       0.00000000       0.00000000       1.01434467E-02   0.00000000    
  0.941860855       0.00000000       0.00000000       0.00000000       0.00000000       1.01053286E-02   0.00000000    
  0.949612796       0.00000000       0.00000000       0.00000000       0.00000000       1.00903483E-02   0.00000000    
  0.957364738       0.00000000       0.00000000       0.00000000       0.00000000       1.00937495E-02   0.00000000    
  0.965116680       0.00000000       0.00000000       0.00000000       0.00000000       1.01189483E-02   0.00000000    
  0.972868621       0.00000000       0.00000000       0.00000000       0.00000000       1.01542538E-02   0.00000000    
  0.980620563       0.00000000       0.00000000       0.00000000       0.00000000       1.02064172E-02   0.00000000    
  0.988372505       0.00000000       0.00000000       0.00000000       0.00000000       1.02481283E-02   0.00000000    
  0.996124446       0.00000000       0.00000000       0.00000000       0.00000000       1.02853449E-02   0.00000000    
   1.00000000       0.00000000       0.00000000       0.00000000       0.00000000       1.02853449E-02   0.00000000    
   0.00000000       3.87596898E-03   0.00000000       0.00000000       0.00000000       1.05525050E-02   0.00000000    
   3.87596898E-03   3.87596898E-03  -1.03302218E-05   9.50040794E-06   1.40346438E-05   1.05539737E-02  -7.82615389E-05
   1.16279069E-02   3.87596898E-03   2.87624516E-07  -9.15869578E-07   9.59971317E-07   1.05685936E-02  -5.37413871E-03
   1.93798449E-02   3.87596898E-03   4.99156049E-05  -9.88148986E-06   5.08842968E-05   1.05780512E-02  -1.43603673E-02
   2.71317828E-02   3.87596898E-03   1.26335828E-04  -1.71271295E-05   1.27491498E-04   1.05877770E-02  -2.65125073E-02
   3.48837227E-02   3.87596898E-03   2.24754825E-04  -2.06131735E-05   2.25698095E-04   1.05862217E-02  -4.15179171E-02
   4.26356606E-02   3.87596898E-03   3.32374417E-04  -2.21803457E-05   3.33113683E-04   1.05773956E-02  -5.79763427E-02
   5.03875986E-02   3.87596898E-03   4.44295234E-04  -2.20282254E-05   4.44840989E-04   1.05573758E-02  -7.50681907E-02
   5.81395365E-02   3.87596898E-03   5.53149323E-04  -2.09877762E-05   5.53547346E-04   1.05284564E-02  -9.17680040E-02
   6.58914745E-02   3.87596898E-03   6.55558426E-04  -1.92619391E-05   6.55841373E-04   1.04898615E-02 -0.107444137    
   7.36434162E-02   3.87596898E-03   7.47735612E-04  -1.71970732E-05   7.47933344E-04   1.04430541E-02 -0.121490911    
   8.13953578E-02   3.87596898E-03   8.27828189E-04  -1.49228017E-05   8.27962649E-04   1.03883306E-02 -0.133530259    
   8.91472995E-02   3.87596898E-03   8.94206518E-04  -1.26012246E-05   8.94295343E-04   1.03267347E-02 -0.143259093    
   9.68992412E-02   3.87596898E-03   9.46220651E-04  -1.03136435E-05   9.46276879E-04   1.02588274E-02 -0.150506511    
  0.104651183       3.87596898E-03   9.83519247E-04  -8.13996303E-06   9.83553007E-04   1.01853730E-02 -0.155167446    
  0.112403125       3.87596898E-03   1.00624259E-03  -6.11749829E-06   1.00626121E-03   1.01068588E-02 -0.157209754    
  0.120155066       3.87596898E-03   1.01470947E-03  -4.27493342E-06   1.01471844E-03   1.00237364E-02 -0.156640783    
  0.127907008       3.87596898E-03   1.00942363E-03  -2.61910759E-06   1.00942701E-03   9.93631035E-03 -0.153499633    
  0.135658950       3.87596898E-03   9.90927103E-04  -1.14400609E-06   9.90927801E-04   9.84481350E-03 -0.147837684    
  0.143410891       3.87596898E-03   9.59755853E-04   1.68044352E-07   9.59755853E-04   9.74936318E-03 -0.139709756    
  0.151162833       3.87596898E-03   9.16364603E-04   1.34501920E-06   9.16365592E-04   9.64998640E-03 -0.129161596    
  0.158914775       3.87596898E-03   8.61088920E-04   2.42380247E-06   8.61092354E-04   9.54661425E-03 -0.116222948    
  0.166666716       3.87596898E-03   7.94104650E-04   3.44571481E-06   7.94112100E-04   9.43909492E-03 -0.100901909    
  0.174418658       3.87596898E-03   7.15409231E-04   4.45181058E-06   7.15423084E-04   9.32724494E-03  -8.31814408E-02
  0.182170600       3.87596898E-03   6.24826411E-04   5.48017533E-06   6.24850451E-04   9.21088085E-03  -6.30179569E-02
  0.189922541       3.87596898E-03   5.22001239E-04   6.57114333E-06   5.22042566E-04   9.08975955E-03  -4.03414406E-02
  0.197674483       3.87596898E-03   4.06418345E-04   7.75747139E-06   4.06492356E-04   8.96367617E-03  -1.50574967E-02
  0.205426425       3.87596898E-03   2.77420157E-04   9.07159301E-06   2.77568441E-04   8.83242209E-03   1.29501689E-02
  0.213178366       3.87596898E-03   1.34218586E-04   1.05319878E-05   1.34631162E-04   8.69582780E-03   4.38164398E-02
  0.220930308       3.87596898E-03  -2.40760382E-05   1.21531930E-05   2.69695338E-05   8.55382904E-03   7.76910111E-02
  0.228682250       3.87596898E-03  -1.98419439E-04   1.39425447E-05   1.98908689E-04   8.40644166E-03  0.114733815    
  0.236434191       3.87596898E-03  -3.89815570E-04   1.59106676E-05   3.90140136E-04   8.25370848E-03  0.155111536    
  0.244186133       3.87596898E-03  -5.99301246E-04   1.80650750E-05   5.99573425E-04   8.09571240E-03  0.198992684    
  0.251938075       3.87596898E-03  -8.27920041E-04   2.04111493E-05   8.28171615E-04   7.93265086E-03  0.246544734    
  0.259690017       3.87596898E-03  -1.07670925E-03   2.29483667E-05   1.07695383E-03   7.76479626E-03  0.297929913    
  0.267441958       3.87596898E-03  -1.34667428E-03   2.56737767E-05   1.34691899E-03   7.59255048E-03  0.353301823    
  0.275193900       3.87596898E-03  -1.63876708E-03   2.85872520E-05   1.63901644E-03   7.41640106E-03  0.412802607    
  0.282945842       3.87596898E-03  -1.95388356E-03   3.16868463E-05   1.95414037E-03   7.23690912E-03  0.476558775    
  0.290697783       3.87596898E-03  -2.29284307E-03   3.49671718E-05   2.29310966E-03   7.05477688E-03  0.544678628    
  0.298449725       3.87596898E-03  -2.65636342E-03   3.84198684E-05   2.65664118E-03   6.87085977E-03  0.617249429    
  0.306201667       3.87596898E-03  -3.04506021E-03   4.20483739E-05   3.04535055E-03   6.68599876E-03  0.694335282    
  0.313953608       3.87596898E-03  -3.45942518E-03   4.58446484E-05   3.45972902E-03   6.50114147E-03  0.775971889    
  0.321705550       3.87596898E-03  -3.89980990E-03   4.98000736E-05   3.90012772E-03   6.31747721E-03  0.862163603    
  0.329457492       3.87596898E-03  -4.36639646E-03   5.39016000E-05   4.36672941E-03   6.13623997E-03  0.952881098    
  0.337209433       3.87596898E-03  -4.85918624E-03   5.81178392E-05   4.85953363E-03   5.95889613E-03   1.04805875    
  0.344961375       3.87596898E-03  -5.37797995E-03   6.24385284E-05   5.37834223E-03   5.78700937E-03   1.14758909    
  0.352713317       3.87596898E-03  -5.92234638E-03   6.68325301E-05   5.92272356E-03   5.62220765E-03   1.25132215    
  0.360465258       3.87596898E-03  -6.49163313E-03   7.12732581E-05   6.49202429E-03   5.46622742E-03   1.35906303    
  0.368217200       3.87596898E-03  -7.08490377E-03   7.57264061E-05   7.08530843E-03   5.32107102E-03   1.47056544    
  0.375969142       3.87596898E-03  -7.70098995E-03   8.01388815E-05   7.70140672E-03   5.18873567E-03   1.58553624    
  0.383721083       3.87596898E-03  -8.33842251E-03   8.44717579E-05   8.33885092E-03   5.07145096E-03   1.70363081    
  0.391473025       3.87596898E-03  -8.99539609E-03   8.86866765E-05   8.99583381E-03   4.97138454E-03   1.82444656    
  0.399224967       3.87596898E-03  -9.66981240E-03   9.27169167E-05   9.67025664E-03   4.89073573E-03   1.94753325    
  0.406976908       3.87596898E-03  -1.03592612E-02   9.65337022E-05   1.03597110E-02   4.83182073E-03   2.07238126    
  0.414728850       3.87596898E-03  -1.10610230E-02   1.00048754E-04   1.10614756E-02   4.79702698E-03   2.19843078    
  0.422480792       3.87596898E-03  -1.17720189E-02   1.03211882E-04   1.17724715E-02   4.78869816E-03   2.32507753    
  0.430232733       3.87596898E-03  -1.24888653E-02   1.05972256E-04   1.24893151E-02   4.80906945E-03   2.45165110    
  0.437984675       3.87596898E-03  -1.32078147E-02   1.08235938E-04   1.32082580E-02   4.86040069E-03   2.57744789    
  0.445736617       3.87596898E-03  -1.39248669E-02   1.09969580E-04   1.39253009E-02   4.94469563E-03   2.70171976    
  0.453488559       3.87596898E-03  -1.46356737E-02   1.11082358E-04   1.46360947E-02   5.06400084E-03   2.82366753    
  0.461240500       3.87596898E-03  -1.53356269E-02   1.11520225E-04   1.53360320E-02   5.22006908E-03   2.94247270    
  0.468992442       3.87596898E-03  -1.60198659E-02   1.11220928E-04   1.60202514E-02   5.41438675E-03   3.05727053    
  0.476744384       3.87596898E-03  -1.66833047E-02   1.10096647E-04   1.66836679E-02   5.64831169E-03   3.16718864    
  0.484496325       3.87596898E-03  -1.73205864E-02   1.08094988E-04   1.73209235E-02   5.92282042E-03   3.27132845    
  0.492248267       3.87596898E-03  -1.79262776E-02   1.05152103E-04   1.79265868E-02   6.23857928E-03   3.36878753    
  0.500000179       3.87596898E-03  -1.84947420E-02   1.01227197E-04   1.84950195E-02   6.59570517E-03   3.45865250    
  0.507752120       3.87596898E-03  -1.90202538E-02   9.62455379E-05   1.90204978E-02   6.99424185E-03   3.54001784    
  0.515504062       3.87596898E-03  -1.94970593E-02   9.01716267E-05   1.94972679E-02   7.43350107E-03   3.61199546    
  0.523256004       3.87596898E-03  -1.99193936E-02   8.29867131E-05   1.99195668E-02   7.91236944E-03   3.67370892    
  0.531007946       3.87596898E-03  -2.02816091E-02   7.46494916E-05   2.02817470E-02   8.42926186E-03   3.72432208    
  0.538759887       3.87596898E-03  -2.05780696E-02   6.51334049E-05   2.05781721E-02   8.98205210E-03   3.76303101    
  0.546511829       3.87596898E-03  -2.08034161E-02   5.44626455E-05   2.08034869E-02   9.56799276E-03   3.78909016    
  0.554263771       3.87596898E-03  -2.09525116E-02   4.26518163E-05   2.09525544E-02   1.01838149E-02   3.80180168    
  0.562015712       3.87596898E-03  -2.10205261E-02   2.97278530E-05   2.10205466E-02   1.08256554E-02   3.80053806    
  0.569767654       3.87596898E-03  -2.10030507E-02   1.57299073E-05   2.10030563E-02   1.14892293E-02   3.78474927    
  0.577519596       3.87596898E-03  -2.08961312E-02   7.24306176E-07   2.08961312E-02   1.21696414E-02   3.75397849    
  0.585271537       3.87596898E-03  -2.06963867E-02  -1.51983004E-05   2.06963923E-02   1.28613878E-02   3.70786095    
  0.593023479       3.87596898E-03  -2.04011071E-02  -3.19317842E-05   2.04011314E-02   1.35585759E-02   3.64615154    
  0.600775421       3.87596898E-03  -2.00083070E-02  -4.93073785E-05   2.00083684E-02   1.42549397E-02   3.56870627    
  0.608527362       3.87596898E-03  -1.95168462E-02  -6.71771922E-05   1.95169616E-02   1.49437357E-02   3.47551703    
  0.616279304       3.87596898E-03  -1.89265218E-02  -8.53524034E-05   1.89267136E-02   1.56179983E-02   3.36671972    
  0.624031246       3.87596898E-03  -1.82381067E-02  -1.03603626E-04   1.82384010E-02   1.62705164E-02   3.24259019    
  0.631783187       3.87596898E-03  -1.74534712E-02  -1.21705008E-04   1.74538959E-02   1.68940127E-02   3.10355783    
  0.639535129       3.87596898E-03  -1.65756717E-02  -1.39352909E-04   1.65762585E-02   1.74811594E-02   2.95023036    
  0.647287071       3.87596898E-03  -1.56090492E-02  -1.56254639E-04   1.56098315E-02   1.80248450E-02   2.78336096    
  0.655039012       3.87596898E-03  -1.45591870E-02  -1.72124142E-04   1.45602040E-02   1.85182374E-02   2.60389686    
  0.662790954       3.87596898E-03  -1.34330178E-02  -1.86621663E-04   1.34343142E-02   1.89548936E-02   2.41294932    
  0.670542896       3.87596898E-03  -1.22388480E-02  -1.99449220E-04   1.22404732E-02   1.93290021E-02   2.21181822    
  0.678294837       3.87596898E-03  -1.09862685E-02  -2.10258630E-04   1.09882802E-02   1.96353830E-02   2.00197244    
  0.686046779       3.87596898E-03  -9.68620833E-03  -2.18743386E-04   9.68867820E-03   1.98697709E-02   1.78504670    
  0.693798721       3.87596898E-03  -8.35077744E-03  -2.24623625E-04   8.35379772E-03   2.00288687E-02   1.56283855    
  0.701550663       3.87596898E-03  -6.99321134E-03  -2.27650104E-04   6.99691568E-03   2.01105513E-02   1.33728886    
  0.709302604       3.87596898E-03  -5.62765822E-03  -2.27639568E-04   5.63226035E-03   2.01139115E-02   1.11046541    
  0.717054546       3.87596898E-03  -4.26899036E-03  -2.24458490E-04   4.27488703E-03   2.00393870E-02  0.884538412    
  0.724806488       3.87596898E-03  -2.93254550E-03  -2.18051398E-04   2.94064102E-03   1.98887419E-02  0.661746383    
  0.732558429       3.87596898E-03  -1.63381838E-03  -2.08459140E-04   1.64706330E-03   1.96651500E-02  0.444365233    
  0.740310371       3.87596898E-03  -3.88119079E-04  -1.95811503E-04   4.34716640E-04   1.93731058E-02  0.234665006    
  0.748062313       3.87596898E-03   7.89790298E-04  -1.80334304E-04   8.10116762E-04   1.90183874E-02   3.48644778E-02
  0.755814254       3.87596898E-03   1.88610866E-03  -1.62353550E-04   1.89308333E-03   1.86079219E-02 -0.152920857    
  0.763566196       3.87596898E-03   2.88838334E-03  -1.42286895E-04   2.89188582E-03   1.81496162E-02 -0.326730579    
  0.771318138       3.87596898E-03   3.78591754E-03  -1.20630582E-04   3.78783885E-03   1.76521596E-02 -0.484814674    
  0.779070079       3.87596898E-03   4.57010372E-03  -9.79384859E-05   4.57115332E-03   1.71247609E-02 -0.625686288    
  0.786822021       3.87596898E-03   5.23474999E-03  -7.48049497E-05   5.23528457E-03   1.65768713E-02 -0.748168886    
  0.794573963       3.87596898E-03   5.77624235E-03  -5.18263478E-05   5.77647472E-03   1.60179678E-02 -0.851438284    
  0.802325904       3.87596898E-03   6.19370909E-03  -2.95848240E-05   6.19377987E-03   1.54571999E-02 -0.935054004    
  0.810077846       3.87596898E-03   6.48899795E-03  -8.61298849E-06   6.48900354E-03   1.49031775E-02 -0.998973072    
  0.817829788       3.87596898E-03   6.66653505E-03   1.06305743E-05   6.66654343E-03   1.43637024E-02  -1.04355133    
  0.825581729       3.87596898E-03   6.73313439E-03   2.77801410E-05   6.73319167E-03   1.38456207E-02  -1.06952775    
  0.833333671       3.87596898E-03   6.69758767E-03   4.25879480E-05   6.69772318E-03   1.33546554E-02  -1.07798409    
  0.841085613       3.87596898E-03   6.57027820E-03   5.49196848E-05   6.57050777E-03   1.28953187E-02  -1.07030511    
  0.848837554       3.87596898E-03   6.36267150E-03   6.47480338E-05   6.36300072E-03   1.24709457E-02  -1.04810727    
  0.856589496       3.87596898E-03   6.08683378E-03   7.21423858E-05   6.08726125E-03   1.20837074E-02  -1.01316941    
  0.864341438       3.87596898E-03   5.75491786E-03   7.72767307E-05   5.75543661E-03   1.17346337E-02 -0.967357159    
  0.872093379       3.87596898E-03   5.37874550E-03   8.03904986E-05   5.37934620E-03   1.14238476E-02 -0.912557065    
  0.879845321       3.87596898E-03   4.96939989E-03   8.17657346E-05   4.97007277E-03   1.11506283E-02 -0.850605011    
  0.887597263       3.87596898E-03   4.53700917E-03   8.17169639E-05   4.53774491E-03   1.09136719E-02 -0.783236980    
  0.895349205       3.87596898E-03   4.09044931E-03   8.05768505E-05   4.09124279E-03   1.07111353E-02 -0.712049127    